
     Program BANDS v.7.2 starts on 26Jan2024 at 12:20:16 

     This program is part of the open-source Quantum ESPRESSO suite
     for quantum simulation of materials; please cite
         "P. Giannozzi et al., J. Phys.:Condens. Matter 21 395502 (2009);
         "P. Giannozzi et al., J. Phys.:Condens. Matter 29 465901 (2017);
         "P. Giannozzi et al., J. Chem. Phys. 152 154105 (2020);
          URL http://www.quantum-espresso.org", 
     in publications or presentations arising from this work. More details at
     http://www.quantum-espresso.org/quote

     Parallel version (MPI), running on     1 processors

     MPI processes distributed on     1 nodes
     138127 MiB available memory on the printing compute node when the environment starts
 

     Reading xml data from directory:

     ./out/NbP_spin.save/
     file Nb.pbesol-spn-kjpaw_psl.0.3.0.UPF: wavefunction(s)  4S 4P renormalized

     IMPORTANT: XC functional enforced from input :
     Exchange-correlation= PBESOL
                           (   1   4  10   8   0   0   0)
     Any further DFT definition will be discarded
     Please, verify this is what you really want

 
     G-vector sticks info
     --------------------
     sticks:   dense  smooth     PW     G-vecs:    dense   smooth      PW
     Sum        1033     509    161                41977    14855    2537
 
     Using Slab Decomposition
 

     Check: negative core charge=   -0.000003
     Reading collected, re-writing distributed wavefunctions
     high-symmetry point:  0.0000 0.0000 0.0000   x coordinate   0.0000
     high-symmetry point: -0.5194 0.4798 0.0000   x coordinate   0.7071
     high-symmetry point: -0.4813 0.5211-0.1355   x coordinate   0.8538
     high-symmetry point:  0.0000 0.5211 0.0000   x coordinate   1.3538
     high-symmetry point:  0.0415 0.5211-0.1472   x coordinate   1.5068
     high-symmetry point: -0.3984 0.5211-0.2711   x coordinate   1.9637
     high-symmetry point:  0.0000 0.0000 0.0000   x coordinate   2.6734
     high-symmetry point:  0.0763 0.0826-0.2711   x coordinate   2.9669
     high-symmetry point: -0.0409 0.5140 0.1452   x coordinate   2.9669
     high-symmetry point:  0.0000 0.0000 0.0000   x coordinate   3.5027

     Plottable bands (eV) written to file NbP_bands.dat.gnu
     Bands written to file NbP_bands.dat

 **************************************************************************

                    xk=(   0.00000,   0.00000,   0.00000  )

     point group C_1 (1)    
     there are  1 classes
     the character table:

       E    
A      1.00

     the symmetry operations in each class and the name of the first element:

     E        1
                                                                 

     Band symmetry, C_1 (1)     point group:

     e(  1 -  1) =    -40.01662  eV     1   --> A              
     e(  2 -  2) =    -39.97827  eV     1   --> A              
     e(  3 -  3) =    -16.31515  eV     1   --> A              
     e(  4 -  5) =    -16.11830  eV     2   -->   2 A              
     e(  6 -  7) =    -15.97276  eV     2   -->   2 A              
     e(  8 -  8) =    -15.92360  eV     1   --> A              
     e(  9 -  9) =      2.11775  eV     1   --> A              
     e( 10 - 10) =      4.55536  eV     1   --> A              
     e( 11 - 11) =      8.65242  eV     1   --> A              
     e( 12 - 12) =     11.80439  eV     1   --> A              
     e( 13 - 14) =     12.58381  eV     2   -->   2 A              
     e( 15 - 15) =     12.68057  eV     1   --> A              
     e( 16 - 16) =     13.12606  eV     1   --> A              
     e( 17 - 18) =     13.46713  eV     2   -->   2 A              
     e( 19 - 19) =     15.61925  eV     1   --> A              
     e( 20 - 20) =     16.40440  eV     1   --> A              
     e( 21 - 21) =     17.49000  eV     1   --> A              
     e( 22 - 22) =     17.94383  eV     1   --> A              

 **************************************************************************

 **************************************************************************

                    xk=(  -0.00541,   0.00500,   0.00000  )

     Band symmetry, C_1 (1)     point group:

     e(  1 -  1) =    -40.01661  eV     1   --> A              
     e(  2 -  2) =    -39.97826  eV     1   --> A              
     e(  3 -  3) =    -16.31511  eV     1   --> A              
     e(  4 -  5) =    -16.11837  eV     2   -->   2 A              
     e(  6 -  7) =    -15.97284  eV     2   -->   2 A              
     e(  8 -  8) =    -15.92358  eV     1   --> A              
     e(  9 -  9) =      2.11850  eV     1   --> A              
     e( 10 - 10) =      4.55562  eV     1   --> A              
     e( 11 - 11) =      8.65277  eV     1   --> A              
     e( 12 - 12) =     11.80302  eV     1   --> A              
     e( 13 - 13) =     12.58292  eV     1   --> A              
     e( 14 - 14) =     12.58433  eV     1   --> A              
     e( 15 - 15) =     12.68069  eV     1   --> A              
     e( 16 - 16) =     13.12459  eV     1   --> A              
     e( 17 - 17) =     13.46667  eV     1   --> A              
     e( 18 - 18) =     13.46810  eV     1   --> A              
     e( 19 - 19) =     15.61801  eV     1   --> A              
     e( 20 - 20) =     16.40259  eV     1   --> A              
     e( 21 - 21) =     17.48931  eV     1   --> A              
     e( 22 - 22) =     17.94094  eV     1   --> A              

 **************************************************************************

 **************************************************************************

                    xk=(  -0.01082,   0.01000,   0.00000  )

     Band symmetry, C_1 (1)     point group:

     e(  1 -  1) =    -40.01658  eV     1   --> A              
     e(  2 -  2) =    -39.97824  eV     1   --> A              
     e(  3 -  3) =    -16.31498  eV     1   --> A              
     e(  4 -  4) =    -16.11860  eV     1   --> A              
     e(  5 -  5) =    -16.11849  eV     1   --> A              
     e(  6 -  6) =    -15.97308  eV     1   --> A              
     e(  7 -  7) =    -15.97295  eV     1   --> A              
     e(  8 -  8) =    -15.92354  eV     1   --> A              
     e(  9 -  9) =      2.12073  eV     1   --> A              
     e( 10 - 10) =      4.55639  eV     1   --> A              
     e( 11 - 11) =      8.65384  eV     1   --> A              
     e( 12 - 12) =     11.79893  eV     1   --> A              
     e( 13 - 13) =     12.58030  eV     1   --> A              
     e( 14 - 14) =     12.58585  eV     1   --> A              
     e( 15 - 15) =     12.68094  eV     1   --> A              
     e( 16 - 16) =     13.12021  eV     1   --> A              
     e( 17 - 17) =     13.46532  eV     1   --> A              
     e( 18 - 18) =     13.47099  eV     1   --> A              
     e( 19 - 19) =     15.61431  eV     1   --> A              
     e( 20 - 20) =     16.39715  eV     1   --> A              
     e( 21 - 21) =     17.48731  eV     1   --> A              
     e( 22 - 22) =     17.93247  eV     1   --> A              

 **************************************************************************

 **************************************************************************

                    xk=(  -0.01623,   0.01499,   0.00000  )

     Band symmetry, C_1 (1)     point group:

     e(  1 -  1) =    -40.01652  eV     1   --> A              
     e(  2 -  2) =    -39.97821  eV     1   --> A              
     e(  3 -  3) =    -16.31479  eV     1   --> A              
     e(  4 -  4) =    -16.11898  eV     1   --> A              
     e(  5 -  5) =    -16.11877  eV     1   --> A              
     e(  6 -  6) =    -15.97349  eV     1   --> A              
     e(  7 -  7) =    -15.97324  eV     1   --> A              
     e(  8 -  8) =    -15.92348  eV     1   --> A              
     e(  9 -  9) =      2.12445  eV     1   --> A              
     e( 10 - 10) =      4.55766  eV     1   --> A              
     e( 11 - 11) =      8.65562  eV     1   --> A              
     e( 12 - 12) =     11.79216  eV     1   --> A              
     e( 13 - 13) =     12.57614  eV     1   --> A              
     e( 14 - 14) =     12.58828  eV     1   --> A              
     e( 15 - 15) =     12.68104  eV     1   --> A              
     e( 16 - 16) =     13.11304  eV     1   --> A              
     e( 17 - 17) =     13.46322  eV     1   --> A              
     e( 18 - 18) =     13.47575  eV     1   --> A              
     e( 19 - 19) =     15.60816  eV     1   --> A              
     e( 20 - 20) =     16.38811  eV     1   --> A              
     e( 21 - 21) =     17.48424  eV     1   --> A              
     e( 22 - 22) =     17.91900  eV     1   --> A              

 **************************************************************************

 **************************************************************************

                    xk=(  -0.02164,   0.01999,   0.00000  )

     Band symmetry, C_1 (1)     point group:

     e(  1 -  1) =    -40.01644  eV     1   --> A              
     e(  2 -  2) =    -39.97817  eV     1   --> A              
     e(  3 -  3) =    -16.31452  eV     1   --> A              
     e(  4 -  4) =    -16.11955  eV     1   --> A              
     e(  5 -  5) =    -16.11921  eV     1   --> A              
     e(  6 -  6) =    -15.97409  eV     1   --> A              
     e(  7 -  7) =    -15.97366  eV     1   --> A              
     e(  8 -  8) =    -15.92339  eV     1   --> A              
     e(  9 -  9) =      2.12965  eV     1   --> A              
     e( 10 - 10) =      4.55944  eV     1   --> A              
     e( 11 - 11) =      8.65811  eV     1   --> A              
     e( 12 - 12) =     11.78280  eV     1   --> A              
     e( 13 - 13) =     12.57064  eV     1   --> A              
     e( 14 - 14) =     12.59145  eV     1   --> A              
     e( 15 - 15) =     12.68056  eV     1   --> A              
     e( 16 - 16) =     13.10327  eV     1   --> A              
     e( 17 - 17) =     13.46060  eV     1   --> A              
     e( 18 - 18) =     13.48231  eV     1   --> A              
     e( 19 - 19) =     15.59955  eV     1   --> A              
     e( 20 - 20) =     16.37548  eV     1   --> A              
     e( 21 - 21) =     17.48042  eV     1   --> A              
     e( 22 - 22) =     17.90130  eV     1   --> A              

 **************************************************************************

 **************************************************************************

                    xk=(  -0.02705,   0.02499,   0.00000  )

     Band symmetry, C_1 (1)     point group:

     e(  1 -  1) =    -40.01633  eV     1   --> A              
     e(  2 -  2) =    -39.97810  eV     1   --> A              
     e(  3 -  3) =    -16.31417  eV     1   --> A              
     e(  4 -  4) =    -16.12022  eV     1   --> A              
     e(  5 -  5) =    -16.11966  eV     1   --> A              
     e(  6 -  6) =    -15.97481  eV     1   --> A              
     e(  7 -  7) =    -15.97412  eV     1   --> A              
     e(  8 -  8) =    -15.92327  eV     1   --> A              
     e(  9 -  9) =      2.13632  eV     1   --> A              
     e( 10 - 10) =      4.56173  eV     1   --> A              
     e( 11 - 11) =      8.66135  eV     1   --> A              
     e( 12 - 12) =     11.77096  eV     1   --> A              
     e( 13 - 13) =     12.56404  eV     1   --> A              
     e( 14 - 14) =     12.59515  eV     1   --> A              
     e( 15 - 15) =     12.67904  eV     1   --> A              
     e( 16 - 16) =     13.09119  eV     1   --> A              
     e( 17 - 17) =     13.45775  eV     1   --> A              
     e( 18 - 18) =     13.49058  eV     1   --> A              
     e( 19 - 19) =     15.58858  eV     1   --> A              
     e( 20 - 20) =     16.35935  eV     1   --> A              
     e( 21 - 21) =     17.47626  eV     1   --> A              
     e( 22 - 22) =     17.88018  eV     1   --> A              

 **************************************************************************

 **************************************************************************

                    xk=(  -0.03247,   0.02999,   0.00000  )

     Band symmetry, C_1 (1)     point group:

     e(  1 -  1) =    -40.01620  eV     1   --> A              
     e(  2 -  2) =    -39.97803  eV     1   --> A              
     e(  3 -  3) =    -16.31375  eV     1   --> A              
     e(  4 -  4) =    -16.12106  eV     1   --> A              
     e(  5 -  5) =    -16.12028  eV     1   --> A              
     e(  6 -  6) =    -15.97569  eV     1   --> A              
     e(  7 -  7) =    -15.97473  eV     1   --> A              
     e(  8 -  8) =    -15.92314  eV     1   --> A              
     e(  9 -  9) =      2.14447  eV     1   --> A              
     e( 10 - 10) =      4.56449  eV     1   --> A              
     e( 11 - 11) =      8.66532  eV     1   --> A              
     e( 12 - 12) =     11.75675  eV     1   --> A              
     e( 13 - 13) =     12.55651  eV     1   --> A              
     e( 14 - 14) =     12.59906  eV     1   --> A              
     e( 15 - 15) =     12.67596  eV     1   --> A              
     e( 16 - 16) =     13.07712  eV     1   --> A              
     e( 17 - 17) =     13.45504  eV     1   --> A              
     e( 18 - 18) =     13.50047  eV     1   --> A              
     e( 19 - 19) =     15.57529  eV     1   --> A              
     e( 20 - 20) =     16.33977  eV     1   --> A              
     e( 21 - 21) =     17.47215  eV     1   --> A              
     e( 22 - 22) =     17.85635  eV     1   --> A              

 **************************************************************************

 **************************************************************************

                    xk=(  -0.03788,   0.03498,   0.00000  )

     Band symmetry, C_1 (1)     point group:

     e(  1 -  1) =    -40.01605  eV     1   --> A              
     e(  2 -  2) =    -39.97796  eV     1   --> A              
     e(  3 -  3) =    -16.31326  eV     1   --> A              
     e(  4 -  4) =    -16.12207  eV     1   --> A              
     e(  5 -  5) =    -16.12104  eV     1   --> A              
     e(  6 -  6) =    -15.97675  eV     1   --> A              
     e(  7 -  7) =    -15.97548  eV     1   --> A              
     e(  8 -  8) =    -15.92300  eV     1   --> A              
     e(  9 -  9) =      2.15408  eV     1   --> A              
     e( 10 - 10) =      4.56772  eV     1   --> A              
     e( 11 - 11) =      8.67006  eV     1   --> A              
     e( 12 - 12) =     11.74031  eV     1   --> A              
     e( 13 - 13) =     12.54821  eV     1   --> A              
     e( 14 - 14) =     12.60282  eV     1   --> A              
     e( 15 - 15) =     12.67079  eV     1   --> A              
     e( 16 - 16) =     13.06151  eV     1   --> A              
     e( 17 - 17) =     13.45290  eV     1   --> A              
     e( 18 - 18) =     13.51186  eV     1   --> A              
     e( 19 - 19) =     15.55975  eV     1   --> A              
     e( 20 - 20) =     16.31682  eV     1   --> A              
     e( 21 - 21) =     17.46846  eV     1   --> A              
     e( 22 - 22) =     17.83045  eV     1   --> A              

 **************************************************************************

 **************************************************************************

                    xk=(  -0.04329,   0.03998,   0.00000  )

     Band symmetry, C_1 (1)     point group:

     e(  1 -  1) =    -40.01589  eV     1   --> A              
     e(  2 -  2) =    -39.97786  eV     1   --> A              
     e(  3 -  3) =    -16.31270  eV     1   --> A              
     e(  4 -  4) =    -16.12325  eV     1   --> A              
     e(  5 -  5) =    -16.12190  eV     1   --> A              
     e(  6 -  6) =    -15.97798  eV     1   --> A              
     e(  7 -  7) =    -15.97633  eV     1   --> A              
     e(  8 -  8) =    -15.92285  eV     1   --> A              
     e(  9 -  9) =      2.16515  eV     1   --> A              
     e( 10 - 10) =      4.57143  eV     1   --> A              
     e( 11 - 11) =      8.67558  eV     1   --> A              
     e( 12 - 12) =     11.72177  eV     1   --> A              
     e( 13 - 13) =     12.53925  eV     1   --> A              
     e( 14 - 14) =     12.60597  eV     1   --> A              
     e( 15 - 15) =     12.66303  eV     1   --> A              
     e( 16 - 16) =     13.04487  eV     1   --> A              
     e( 17 - 17) =     13.45178  eV     1   --> A              
     e( 18 - 18) =     13.52464  eV     1   --> A              
     e( 19 - 19) =     15.54208  eV     1   --> A              
     e( 20 - 20) =     16.29059  eV     1   --> A              
     e( 21 - 21) =     17.46555  eV     1   --> A              
     e( 22 - 22) =     17.80298  eV     1   --> A              

 **************************************************************************

 **************************************************************************

                    xk=(  -0.04870,   0.04498,   0.00000  )

     Band symmetry, C_1 (1)     point group:

     e(  1 -  1) =    -40.01569  eV     1   --> A              
     e(  2 -  2) =    -39.97776  eV     1   --> A              
     e(  3 -  3) =    -16.31206  eV     1   --> A              
     e(  4 -  4) =    -16.12456  eV     1   --> A              
     e(  5 -  5) =    -16.12287  eV     1   --> A              
     e(  6 -  6) =    -15.97933  eV     1   --> A              
     e(  7 -  7) =    -15.97730  eV     1   --> A              
     e(  8 -  8) =    -15.92269  eV     1   --> A              
     e(  9 -  9) =      2.17766  eV     1   --> A              
     e( 10 - 10) =      4.57558  eV     1   --> A              
     e( 11 - 11) =      8.68190  eV     1   --> A              
     e( 12 - 12) =     11.70125  eV     1   --> A              
     e( 13 - 13) =     12.52969  eV     1   --> A              
     e( 14 - 14) =     12.60795  eV     1   --> A              
     e( 15 - 15) =     12.65224  eV     1   --> A              
     e( 16 - 16) =     13.02785  eV     1   --> A              
     e( 17 - 17) =     13.45212  eV     1   --> A              
     e( 18 - 18) =     13.53873  eV     1   --> A              
     e( 19 - 19) =     15.52242  eV     1   --> A              
     e( 20 - 20) =     16.26123  eV     1   --> A              
     e( 21 - 21) =     17.46369  eV     1   --> A              
     e( 22 - 22) =     17.77437  eV     1   --> A              

 **************************************************************************

 **************************************************************************

                    xk=(  -0.05411,   0.04998,   0.00000  )

     Band symmetry, C_1 (1)     point group:

     e(  1 -  1) =    -40.01547  eV     1   --> A              
     e(  2 -  2) =    -39.97763  eV     1   --> A              
     e(  3 -  3) =    -16.31135  eV     1   --> A              
     e(  4 -  4) =    -16.12591  eV     1   --> A              
     e(  5 -  5) =    -16.12390  eV     1   --> A              
     e(  6 -  6) =    -15.98071  eV     1   --> A              
     e(  7 -  7) =    -15.97833  eV     1   --> A              
     e(  8 -  8) =    -15.92252  eV     1   --> A              
     e(  9 -  9) =      2.19160  eV     1   --> A              
     e( 10 - 10) =      4.58016  eV     1   --> A              
     e( 11 - 11) =      8.68906  eV     1   --> A              
     e( 12 - 12) =     11.67890  eV     1   --> A              
     e( 13 - 13) =     12.51958  eV     1   --> A              
     e( 14 - 14) =     12.60813  eV     1   --> A              
     e( 15 - 15) =     12.63804  eV     1   --> A              
     e( 16 - 16) =     13.01119  eV     1   --> A              
     e( 17 - 17) =     13.45435  eV     1   --> A              
     e( 18 - 18) =     13.55402  eV     1   --> A              
     e( 19 - 19) =     15.50094  eV     1   --> A              
     e( 20 - 20) =     16.22887  eV     1   --> A              
     e( 21 - 21) =     17.46311  eV     1   --> A              
     e( 22 - 22) =     17.74494  eV     1   --> A              

 **************************************************************************

 **************************************************************************

                    xk=(  -0.05952,   0.05497,   0.00000  )

     Band symmetry, C_1 (1)     point group:

     e(  1 -  1) =    -40.01523  eV     1   --> A              
     e(  2 -  2) =    -39.97751  eV     1   --> A              
     e(  3 -  3) =    -16.31057  eV     1   --> A              
     e(  4 -  4) =    -16.12751  eV     1   --> A              
     e(  5 -  5) =    -16.12509  eV     1   --> A              
     e(  6 -  6) =    -15.98233  eV     1   --> A              
     e(  7 -  7) =    -15.97951  eV     1   --> A              
     e(  8 -  8) =    -15.92235  eV     1   --> A              
     e(  9 -  9) =      2.20696  eV     1   --> A              
     e( 10 - 10) =      4.58516  eV     1   --> A              
     e( 11 - 11) =      8.69705  eV     1   --> A              
     e( 12 - 12) =     11.65481  eV     1   --> A              
     e( 13 - 13) =     12.50892  eV     1   --> A              
     e( 14 - 14) =     12.60576  eV     1   --> A              
     e( 15 - 15) =     12.62009  eV     1   --> A              
     e( 16 - 16) =     12.99572  eV     1   --> A              
     e( 17 - 17) =     13.45881  eV     1   --> A              
     e( 18 - 18) =     13.57038  eV     1   --> A              
     e( 19 - 19) =     15.47781  eV     1   --> A              
     e( 20 - 20) =     16.19365  eV     1   --> A              
     e( 21 - 21) =     17.46396  eV     1   --> A              
     e( 22 - 22) =     17.71494  eV     1   --> A              

 **************************************************************************

 **************************************************************************

                    xk=(  -0.06493,   0.05997,   0.00000  )

     Band symmetry, C_1 (1)     point group:

     e(  1 -  1) =    -40.01496  eV     1   --> A              
     e(  2 -  2) =    -39.97736  eV     1   --> A              
     e(  3 -  3) =    -16.30968  eV     1   --> A              
     e(  4 -  4) =    -16.12921  eV     1   --> A              
     e(  5 -  5) =    -16.12633  eV     1   --> A              
     e(  6 -  6) =    -15.98404  eV     1   --> A              
     e(  7 -  7) =    -15.98075  eV     1   --> A              
     e(  8 -  8) =    -15.92218  eV     1   --> A              
     e(  9 -  9) =      2.22372  eV     1   --> A              
     e( 10 - 10) =      4.59056  eV     1   --> A              
     e( 11 - 11) =      8.70593  eV     1   --> A              
     e( 12 - 12) =     11.62907  eV     1   --> A              
     e( 13 - 13) =     12.49770  eV     1   --> A              
     e( 14 - 14) =     12.59823  eV     1   --> A              
     e( 15 - 15) =     12.60012  eV     1   --> A              
     e( 16 - 16) =     12.98229  eV     1   --> A              
     e( 17 - 17) =     13.46577  eV     1   --> A              
     e( 18 - 18) =     13.58773  eV     1   --> A              
     e( 19 - 19) =     15.45330  eV     1   --> A              
     e( 20 - 20) =     16.15579  eV     1   --> A              
     e( 21 - 21) =     17.46636  eV     1   --> A              
     e( 22 - 22) =     17.68457  eV     1   --> A              

 **************************************************************************

 **************************************************************************

                    xk=(  -0.07034,   0.06497,   0.00000  )

     Band symmetry, C_1 (1)     point group:

     e(  1 -  1) =    -40.01468  eV     1   --> A              
     e(  2 -  2) =    -39.97721  eV     1   --> A              
     e(  3 -  3) =    -16.30876  eV     1   --> A              
     e(  4 -  4) =    -16.13108  eV     1   --> A              
     e(  5 -  5) =    -16.12771  eV     1   --> A              
     e(  6 -  6) =    -15.98590  eV     1   --> A              
     e(  7 -  7) =    -15.98213  eV     1   --> A              
     e(  8 -  8) =    -15.92204  eV     1   --> A              
     e(  9 -  9) =      2.24187  eV     1   --> A              
     e( 10 - 10) =      4.59632  eV     1   --> A              
     e( 11 - 11) =      8.71571  eV     1   --> A              
     e( 12 - 12) =     11.60177  eV     1   --> A              
     e( 13 - 13) =     12.48582  eV     1   --> A              
     e( 14 - 14) =     12.57243  eV     1   --> A              
     e( 15 - 15) =     12.59053  eV     1   --> A              
     e( 16 - 16) =     12.97171  eV     1   --> A              
     e( 17 - 17) =     13.47538  eV     1   --> A              
     e( 18 - 18) =     13.60596  eV     1   --> A              
     e( 19 - 19) =     15.42764  eV     1   --> A              
     e( 20 - 20) =     16.11546  eV     1   --> A              
     e( 21 - 21) =     17.47035  eV     1   --> A              
     e( 22 - 22) =     17.65397  eV     1   --> A              

 **************************************************************************

 **************************************************************************

                    xk=(  -0.07575,   0.06997,   0.00000  )

     Band symmetry, C_1 (1)     point group:

     e(  1 -  1) =    -40.01437  eV     1   --> A              
     e(  2 -  2) =    -39.97705  eV     1   --> A              
     e(  3 -  3) =    -16.30778  eV     1   --> A              
     e(  4 -  4) =    -16.13305  eV     1   --> A              
     e(  5 -  5) =    -16.12916  eV     1   --> A              
     e(  6 -  6) =    -15.98785  eV     1   --> A              
     e(  7 -  7) =    -15.98359  eV     1   --> A              
     e(  8 -  8) =    -15.92189  eV     1   --> A              
     e(  9 -  9) =      2.26138  eV     1   --> A              
     e( 10 - 10) =      4.60244  eV     1   --> A              
     e( 11 - 11) =      8.72641  eV     1   --> A              
     e( 12 - 12) =     11.57297  eV     1   --> A              
     e( 13 - 13) =     12.47313  eV     1   --> A              
     e( 14 - 14) =     12.54283  eV     1   --> A              
     e( 15 - 15) =     12.57658  eV     1   --> A              
     e( 16 - 16) =     12.96455  eV     1   --> A              
     e( 17 - 17) =     13.48771  eV     1   --> A              
     e( 18 - 18) =     13.62497  eV     1   --> A              
     e( 19 - 19) =     15.40113  eV     1   --> A              
     e( 20 - 20) =     16.07286  eV     1   --> A              
     e( 21 - 21) =     17.47598  eV     1   --> A              
     e( 22 - 22) =     17.62326  eV     1   --> A              

 **************************************************************************

 **************************************************************************

                    xk=(  -0.08116,   0.07496,   0.00000  )

     Band symmetry, C_1 (1)     point group:

     e(  1 -  1) =    -40.01404  eV     1   --> A              
     e(  2 -  2) =    -39.97686  eV     1   --> A              
     e(  3 -  3) =    -16.30672  eV     1   --> A              
     e(  4 -  4) =    -16.13515  eV     1   --> A              
     e(  5 -  5) =    -16.13064  eV     1   --> A              
     e(  6 -  6) =    -15.98991  eV     1   --> A              
     e(  7 -  7) =    -15.98509  eV     1   --> A              
     e(  8 -  8) =    -15.92176  eV     1   --> A              
     e(  9 -  9) =      2.28225  eV     1   --> A              
     e( 10 - 10) =      4.60888  eV     1   --> A              
     e( 11 - 11) =      8.73808  eV     1   --> A              
     e( 12 - 12) =     11.54273  eV     1   --> A              
     e( 13 - 13) =     12.45912  eV     1   --> A              
     e( 14 - 14) =     12.51002  eV     1   --> A              
     e( 15 - 15) =     12.55813  eV     1   --> A              
     e( 16 - 16) =     12.96108  eV     1   --> A              
     e( 17 - 17) =     13.50269  eV     1   --> A              
     e( 18 - 18) =     13.64465  eV     1   --> A              
     e( 19 - 19) =     15.37408  eV     1   --> A              
     e( 20 - 20) =     16.02823  eV     1   --> A              
     e( 21 - 21) =     17.48321  eV     1   --> A              
     e( 22 - 22) =     17.59252  eV     1   --> A              

 **************************************************************************

 **************************************************************************

                    xk=(  -0.08657,   0.07996,   0.00000  )

     Band symmetry, C_1 (1)     point group:

     e(  1 -  1) =    -40.01370  eV     1   --> A              
     e(  2 -  2) =    -39.97668  eV     1   --> A              
     e(  3 -  3) =    -16.30562  eV     1   --> A              
     e(  4 -  4) =    -16.13739  eV     1   --> A              
     e(  5 -  5) =    -16.13232  eV     1   --> A              
     e(  6 -  6) =    -15.99209  eV     1   --> A              
     e(  7 -  7) =    -15.98679  eV     1   --> A              
     e(  8 -  8) =    -15.92164  eV     1   --> A              
     e(  9 -  9) =      2.30444  eV     1   --> A              
     e( 10 - 10) =      4.61563  eV     1   --> A              
     e( 11 - 11) =      8.75073  eV     1   --> A              
     e( 12 - 12) =     11.51109  eV     1   --> A              
     e( 13 - 13) =     12.44192  eV     1   --> A              
     e( 14 - 14) =     12.47601  eV     1   --> A              
     e( 15 - 15) =     12.53540  eV     1   --> A              
     e( 16 - 16) =     12.96127  eV     1   --> A              
     e( 17 - 17) =     13.52020  eV     1   --> A              
     e( 18 - 18) =     13.66492  eV     1   --> A              
     e( 19 - 19) =     15.34680  eV     1   --> A              
     e( 20 - 20) =     15.98178  eV     1   --> A              
     e( 21 - 21) =     17.49201  eV     1   --> A              
     e( 22 - 22) =     17.56178  eV     1   --> A              

 **************************************************************************

 **************************************************************************

                    xk=(  -0.09199,   0.08496,   0.00000  )

     Band symmetry, C_1 (1)     point group:

     e(  1 -  1) =    -40.01332  eV     1   --> A              
     e(  2 -  2) =    -39.97648  eV     1   --> A              
     e(  3 -  3) =    -16.30443  eV     1   --> A              
     e(  4 -  4) =    -16.13973  eV     1   --> A              
     e(  5 -  5) =    -16.13401  eV     1   --> A              
     e(  6 -  6) =    -15.99433  eV     1   --> A              
     e(  7 -  7) =    -15.98851  eV     1   --> A              
     e(  8 -  8) =    -15.92152  eV     1   --> A              
     e(  9 -  9) =      2.32794  eV     1   --> A              
     e( 10 - 10) =      4.62265  eV     1   --> A              
     e( 11 - 11) =      8.76439  eV     1   --> A              
     e( 12 - 12) =     11.47806  eV     1   --> A              
     e( 13 - 13) =     12.41498  eV     1   --> A              
     e( 14 - 14) =     12.44756  eV     1   --> A              
     e( 15 - 15) =     12.50886  eV     1   --> A              
     e( 16 - 16) =     12.96478  eV     1   --> A              
     e( 17 - 17) =     13.54005  eV     1   --> A              
     e( 18 - 18) =     13.68568  eV     1   --> A              
     e( 19 - 19) =     15.31965  eV     1   --> A              
     e( 20 - 20) =     15.93377  eV     1   --> A              
     e( 21 - 21) =     17.50231  eV     1   --> A              
     e( 22 - 22) =     17.53109  eV     1   --> A              

 **************************************************************************

 **************************************************************************

                    xk=(  -0.09740,   0.08996,   0.00000  )

     Band symmetry, C_1 (1)     point group:

     e(  1 -  1) =    -40.01292  eV     1   --> A              
     e(  2 -  2) =    -39.97627  eV     1   --> A              
     e(  3 -  3) =    -16.30322  eV     1   --> A              
     e(  4 -  4) =    -16.14219  eV     1   --> A              
     e(  5 -  5) =    -16.13578  eV     1   --> A              
     e(  6 -  6) =    -15.99669  eV     1   --> A              
     e(  7 -  7) =    -15.99031  eV     1   --> A              
     e(  8 -  8) =    -15.92144  eV     1   --> A              
     e(  9 -  9) =      2.35272  eV     1   --> A              
     e( 10 - 10) =      4.62992  eV     1   --> A              
     e( 11 - 11) =      8.77908  eV     1   --> A              
     e( 12 - 12) =     11.44368  eV     1   --> A              
     e( 13 - 13) =     12.37526  eV     1   --> A              
     e( 14 - 14) =     12.42795  eV     1   --> A              
     e( 15 - 15) =     12.47912  eV     1   --> A              
     e( 16 - 16) =     12.97117  eV     1   --> A              
     e( 17 - 17) =     13.56201  eV     1   --> A              
     e( 18 - 18) =     13.70684  eV     1   --> A              
     e( 19 - 19) =     15.29299  eV     1   --> A              
     e( 20 - 20) =     15.88442  eV     1   --> A              
     e( 21 - 21) =     17.50045  eV     1   --> A              
     e( 22 - 22) =     17.51402  eV     1   --> A              

 **************************************************************************

 **************************************************************************

                    xk=(  -0.10281,   0.09495,   0.00000  )

     Band symmetry, C_1 (1)     point group:

     e(  1 -  1) =    -40.01250  eV     1   --> A              
     e(  2 -  2) =    -39.97605  eV     1   --> A              
     e(  3 -  3) =    -16.30193  eV     1   --> A              
     e(  4 -  4) =    -16.14476  eV     1   --> A              
     e(  5 -  5) =    -16.13762  eV     1   --> A              
     e(  6 -  6) =    -15.99913  eV     1   --> A              
     e(  7 -  7) =    -15.99220  eV     1   --> A              
     e(  8 -  8) =    -15.92137  eV     1   --> A              
     e(  9 -  9) =      2.37876  eV     1   --> A              
     e( 10 - 10) =      4.63742  eV     1   --> A              
     e( 11 - 11) =      8.79484  eV     1   --> A              
     e( 12 - 12) =     11.40794  eV     1   --> A              
     e( 13 - 13) =     12.32897  eV     1   --> A              
     e( 14 - 14) =     12.41120  eV     1   --> A              
     e( 15 - 15) =     12.44685  eV     1   --> A              
     e( 16 - 16) =     12.97992  eV     1   --> A              
     e( 17 - 17) =     13.58578  eV     1   --> A              
     e( 18 - 18) =     13.72831  eV     1   --> A              
     e( 19 - 19) =     15.26720  eV     1   --> A              
     e( 20 - 20) =     15.83399  eV     1   --> A              
     e( 21 - 21) =     17.46987  eV     1   --> A              
     e( 22 - 22) =     17.52707  eV     1   --> A              

 **************************************************************************

 **************************************************************************

                    xk=(  -0.10822,   0.09995,   0.00000  )

     Band symmetry, C_1 (1)     point group:

     e(  1 -  1) =    -40.01207  eV     1   --> A              
     e(  2 -  2) =    -39.97582  eV     1   --> A              
     e(  3 -  3) =    -16.30061  eV     1   --> A              
     e(  4 -  4) =    -16.14746  eV     1   --> A              
     e(  5 -  5) =    -16.13957  eV     1   --> A              
     e(  6 -  6) =    -16.00168  eV     1   --> A              
     e(  7 -  7) =    -15.99420  eV     1   --> A              
     e(  8 -  8) =    -15.92133  eV     1   --> A              
     e(  9 -  9) =      2.40603  eV     1   --> A              
     e( 10 - 10) =      4.64511  eV     1   --> A              
     e( 11 - 11) =      8.81168  eV     1   --> A              
     e( 12 - 12) =     11.37085  eV     1   --> A              
     e( 13 - 13) =     12.27891  eV     1   --> A              
     e( 14 - 14) =     12.39477  eV     1   --> A              
     e( 15 - 15) =     12.41268  eV     1   --> A              
     e( 16 - 16) =     12.99053  eV     1   --> A              
     e( 17 - 17) =     13.61107  eV     1   --> A              
     e( 18 - 18) =     13.75002  eV     1   --> A              
     e( 19 - 19) =     15.24265  eV     1   --> A              
     e( 20 - 20) =     15.78270  eV     1   --> A              
     e( 21 - 21) =     17.43934  eV     1   --> A              
     e( 22 - 22) =     17.54134  eV     1   --> A              

 **************************************************************************

 **************************************************************************

                    xk=(  -0.11363,   0.10495,   0.00000  )

     Band symmetry, C_1 (1)     point group:

     e(  1 -  1) =    -40.01162  eV     1   --> A              
     e(  2 -  2) =    -39.97558  eV     1   --> A              
     e(  3 -  3) =    -16.29920  eV     1   --> A              
     e(  4 -  4) =    -16.15028  eV     1   --> A              
     e(  5 -  5) =    -16.14157  eV     1   --> A              
     e(  6 -  6) =    -16.00433  eV     1   --> A              
     e(  7 -  7) =    -15.99627  eV     1   --> A              
     e(  8 -  8) =    -15.92135  eV     1   --> A              
     e(  9 -  9) =      2.43449  eV     1   --> A              
     e( 10 - 10) =      4.65296  eV     1   --> A              
     e( 11 - 11) =      8.82963  eV     1   --> A              
     e( 12 - 12) =     11.33241  eV     1   --> A              
     e( 13 - 13) =     12.22599  eV     1   --> A              
     e( 14 - 14) =     12.37716  eV     1   --> A              
     e( 15 - 15) =     12.37801  eV     1   --> A              
     e( 16 - 16) =     13.00256  eV     1   --> A              
     e( 17 - 17) =     13.63755  eV     1   --> A              
     e( 18 - 18) =     13.77190  eV     1   --> A              
     e( 19 - 19) =     15.21975  eV     1   --> A              
     e( 20 - 20) =     15.73081  eV     1   --> A              
     e( 21 - 21) =     17.40885  eV     1   --> A              
     e( 22 - 22) =     17.55674  eV     1   --> A              

 **************************************************************************

 **************************************************************************

                    xk=(  -0.11904,   0.10995,   0.00000  )

     Band symmetry, C_1 (1)     point group:

     e(  1 -  1) =    -40.01114  eV     1   --> A              
     e(  2 -  2) =    -39.97534  eV     1   --> A              
     e(  3 -  3) =    -16.29780  eV     1   --> A              
     e(  4 -  4) =    -16.15316  eV     1   --> A              
     e(  5 -  5) =    -16.14361  eV     1   --> A              
     e(  6 -  6) =    -16.00702  eV     1   --> A              
     e(  7 -  7) =    -15.99840  eV     1   --> A              
     e(  8 -  8) =    -15.92137  eV     1   --> A              
     e(  9 -  9) =      2.46413  eV     1   --> A              
     e( 10 - 10) =      4.66096  eV     1   --> A              
     e( 11 - 11) =      8.84868  eV     1   --> A              
     e( 12 - 12) =     11.29262  eV     1   --> A              
     e( 13 - 13) =     12.17072  eV     1   --> A              
     e( 14 - 14) =     12.34081  eV     1   --> A              
     e( 15 - 15) =     12.36067  eV     1   --> A              
     e( 16 - 16) =     13.01561  eV     1   --> A              
     e( 17 - 17) =     13.66492  eV     1   --> A              
     e( 18 - 18) =     13.79390  eV     1   --> A              
     e( 19 - 19) =     15.19888  eV     1   --> A              
     e( 20 - 20) =     15.67857  eV     1   --> A              
     e( 21 - 21) =     17.37841  eV     1   --> A              
     e( 22 - 22) =     17.57316  eV     1   --> A              

 **************************************************************************

 **************************************************************************

                    xk=(  -0.12445,   0.11494,   0.00000  )

     Band symmetry, C_1 (1)     point group:

     e(  1 -  1) =    -40.01066  eV     1   --> A              
     e(  2 -  2) =    -39.97508  eV     1   --> A              
     e(  3 -  3) =    -16.29638  eV     1   --> A              
     e(  4 -  4) =    -16.15620  eV     1   --> A              
     e(  5 -  5) =    -16.14573  eV     1   --> A              
     e(  6 -  6) =    -16.00987  eV     1   --> A              
     e(  7 -  7) =    -16.00062  eV     1   --> A              
     e(  8 -  8) =    -15.92144  eV     1   --> A              
     e(  9 -  9) =      2.49490  eV     1   --> A              
     e( 10 - 10) =      4.66906  eV     1   --> A              
     e( 11 - 11) =      8.86887  eV     1   --> A              
     e( 12 - 12) =     11.25148  eV     1   --> A              
     e( 13 - 13) =     12.11344  eV     1   --> A              
     e( 14 - 14) =     12.30404  eV     1   --> A              
     e( 15 - 15) =     12.34262  eV     1   --> A              
     e( 16 - 16) =     13.02932  eV     1   --> A              
     e( 17 - 17) =     13.69281  eV     1   --> A              
     e( 18 - 18) =     13.81595  eV     1   --> A              
     e( 19 - 19) =     15.18045  eV     1   --> A              
     e( 20 - 20) =     15.62617  eV     1   --> A              
     e( 21 - 21) =     17.34798  eV     1   --> A              
     e( 22 - 22) =     17.59048  eV     1   --> A              

 **************************************************************************

 **************************************************************************

                    xk=(  -0.12986,   0.11994,   0.00000  )

     Band symmetry, C_1 (1)     point group:

     e(  1 -  1) =    -40.01015  eV     1   --> A              
     e(  2 -  2) =    -39.97482  eV     1   --> A              
     e(  3 -  3) =    -16.29491  eV     1   --> A              
     e(  4 -  4) =    -16.15931  eV     1   --> A              
     e(  5 -  5) =    -16.14790  eV     1   --> A              
     e(  6 -  6) =    -16.01274  eV     1   --> A              
     e(  7 -  7) =    -16.00292  eV     1   --> A              
     e(  8 -  8) =    -15.92152  eV     1   --> A              
     e(  9 -  9) =      2.52678  eV     1   --> A              
     e( 10 - 10) =      4.67724  eV     1   --> A              
     e( 11 - 11) =      8.89019  eV     1   --> A              
     e( 12 - 12) =     11.20901  eV     1   --> A              
     e( 13 - 13) =     12.05446  eV     1   --> A              
     e( 14 - 14) =     12.26723  eV     1   --> A              
     e( 15 - 15) =     12.32382  eV     1   --> A              
     e( 16 - 16) =     13.04338  eV     1   --> A              
     e( 17 - 17) =     13.72092  eV     1   --> A              
     e( 18 - 18) =     13.83802  eV     1   --> A              
     e( 19 - 19) =     15.16485  eV     1   --> A              
     e( 20 - 20) =     15.57393  eV     1   --> A              
     e( 21 - 21) =     17.31760  eV     1   --> A              
     e( 22 - 22) =     17.60863  eV     1   --> A              

 **************************************************************************

 **************************************************************************

                    xk=(  -0.13527,   0.12494,   0.00000  )

     Band symmetry, C_1 (1)     point group:

     e(  1 -  1) =    -40.00963  eV     1   --> A              
     e(  2 -  2) =    -39.97455  eV     1   --> A              
     e(  3 -  3) =    -16.29342  eV     1   --> A              
     e(  4 -  4) =    -16.16250  eV     1   --> A              
     e(  5 -  5) =    -16.15011  eV     1   --> A              
     e(  6 -  6) =    -16.01568  eV     1   --> A              
     e(  7 -  7) =    -16.00528  eV     1   --> A              
     e(  8 -  8) =    -15.92162  eV     1   --> A              
     e(  9 -  9) =      2.55973  eV     1   --> A              
     e( 10 - 10) =      4.68547  eV     1   --> A              
     e( 11 - 11) =      8.91265  eV     1   --> A              
     e( 12 - 12) =     11.16522  eV     1   --> A              
     e( 13 - 13) =     11.99406  eV     1   --> A              
     e( 14 - 14) =     12.23068  eV     1   --> A              
     e( 15 - 15) =     12.30421  eV     1   --> A              
     e( 16 - 16) =     13.05749  eV     1   --> A              
     e( 17 - 17) =     13.74889  eV     1   --> A              
     e( 18 - 18) =     13.86008  eV     1   --> A              
     e( 19 - 19) =     15.15247  eV     1   --> A              
     e( 20 - 20) =     15.52203  eV     1   --> A              
     e( 21 - 21) =     17.28725  eV     1   --> A              
     e( 22 - 22) =     17.62751  eV     1   --> A              

 **************************************************************************

 **************************************************************************

                    xk=(  -0.14068,   0.12994,   0.00000  )

     Band symmetry, C_1 (1)     point group:

     e(  1 -  1) =    -40.00909  eV     1   --> A              
     e(  2 -  2) =    -39.97427  eV     1   --> A              
     e(  3 -  3) =    -16.29191  eV     1   --> A              
     e(  4 -  4) =    -16.16578  eV     1   --> A              
     e(  5 -  5) =    -16.15235  eV     1   --> A              
     e(  6 -  6) =    -16.01870  eV     1   --> A              
     e(  7 -  7) =    -16.00771  eV     1   --> A              
     e(  8 -  8) =    -15.92176  eV     1   --> A              
     e(  9 -  9) =      2.59371  eV     1   --> A              
     e( 10 - 10) =      4.69373  eV     1   --> A              
     e( 11 - 11) =      8.93626  eV     1   --> A              
     e( 12 - 12) =     11.12015  eV     1   --> A              
     e( 13 - 13) =     11.93249  eV     1   --> A              
     e( 14 - 14) =     12.19466  eV     1   --> A              
     e( 15 - 15) =     12.28375  eV     1   --> A              
     e( 16 - 16) =     13.07138  eV     1   --> A              
     e( 17 - 17) =     13.77642  eV     1   --> A              
     e( 18 - 18) =     13.88212  eV     1   --> A              
     e( 19 - 19) =     15.14367  eV     1   --> A              
     e( 20 - 20) =     15.47071  eV     1   --> A              
     e( 21 - 21) =     17.25693  eV     1   --> A              
     e( 22 - 22) =     17.64702  eV     1   --> A              

 **************************************************************************

 **************************************************************************

                    xk=(  -0.14609,   0.13493,   0.00000  )

     Band symmetry, C_1 (1)     point group:

     e(  1 -  1) =    -40.00853  eV     1   --> A              
     e(  2 -  2) =    -39.97399  eV     1   --> A              
     e(  3 -  3) =    -16.29039  eV     1   --> A              
     e(  4 -  4) =    -16.16915  eV     1   --> A              
     e(  5 -  5) =    -16.15463  eV     1   --> A              
     e(  6 -  6) =    -16.02178  eV     1   --> A              
     e(  7 -  7) =    -16.01021  eV     1   --> A              
     e(  8 -  8) =    -15.92193  eV     1   --> A              
     e(  9 -  9) =      2.62868  eV     1   --> A              
     e( 10 - 10) =      4.70198  eV     1   --> A              
     e( 11 - 11) =      8.96099  eV     1   --> A              
     e( 12 - 12) =     11.07383  eV     1   --> A              
     e( 13 - 13) =     11.87000  eV     1   --> A              
     e( 14 - 14) =     12.15937  eV     1   --> A              
     e( 15 - 15) =     12.26241  eV     1   --> A              
     e( 16 - 16) =     13.08476  eV     1   --> A              
     e( 17 - 17) =     13.80319  eV     1   --> A              
     e( 18 - 18) =     13.90411  eV     1   --> A              
     e( 19 - 19) =     15.13882  eV     1   --> A              
     e( 20 - 20) =     15.42022  eV     1   --> A              
     e( 21 - 21) =     17.22668  eV     1   --> A              
     e( 22 - 22) =     17.66707  eV     1   --> A              

 **************************************************************************

 **************************************************************************

                    xk=(  -0.15151,   0.13993,   0.00000  )

     Band symmetry, C_1 (1)     point group:

     e(  1 -  1) =    -40.00796  eV     1   --> A              
     e(  2 -  2) =    -39.97370  eV     1   --> A              
     e(  3 -  3) =    -16.28887  eV     1   --> A              
     e(  4 -  4) =    -16.17259  eV     1   --> A              
     e(  5 -  5) =    -16.15692  eV     1   --> A              
     e(  6 -  6) =    -16.02491  eV     1   --> A              
     e(  7 -  7) =    -16.01275  eV     1   --> A              
     e(  8 -  8) =    -15.92213  eV     1   --> A              
     e(  9 -  9) =      2.66461  eV     1   --> A              
     e( 10 - 10) =      4.71020  eV     1   --> A              
     e( 11 - 11) =      8.98683  eV     1   --> A              
     e( 12 - 12) =     11.02632  eV     1   --> A              
     e( 13 - 13) =     11.80682  eV     1   --> A              
     e( 14 - 14) =     12.12499  eV     1   --> A              
     e( 15 - 15) =     12.24017  eV     1   --> A              
     e( 16 - 16) =     13.09738  eV     1   --> A              
     e( 17 - 17) =     13.82892  eV     1   --> A              
     e( 18 - 18) =     13.92608  eV     1   --> A              
     e( 19 - 19) =     15.13821  eV     1   --> A              
     e( 20 - 20) =     15.37076  eV     1   --> A              
     e( 21 - 21) =     17.19651  eV     1   --> A              
     e( 22 - 22) =     17.68760  eV     1   --> A              

 **************************************************************************

 **************************************************************************

                    xk=(  -0.15692,   0.14493,   0.00000  )

     Band symmetry, C_1 (1)     point group:

     e(  1 -  1) =    -40.00737  eV     1   --> A              
     e(  2 -  2) =    -39.97341  eV     1   --> A              
     e(  3 -  3) =    -16.28736  eV     1   --> A              
     e(  4 -  4) =    -16.17612  eV     1   --> A              
     e(  5 -  5) =    -16.15926  eV     1   --> A              
     e(  6 -  6) =    -16.02810  eV     1   --> A              
     e(  7 -  7) =    -16.01539  eV     1   --> A              
     e(  8 -  8) =    -15.92236  eV     1   --> A              
     e(  9 -  9) =      2.70145  eV     1   --> A              
     e( 10 - 10) =      4.71835  eV     1   --> A              
     e( 11 - 11) =      9.01375  eV     1   --> A              
     e( 12 - 12) =     10.97769  eV     1   --> A              
     e( 13 - 13) =     11.74317  eV     1   --> A              
     e( 14 - 14) =     12.09166  eV     1   --> A              
     e( 15 - 15) =     12.21702  eV     1   --> A              
     e( 16 - 16) =     13.10896  eV     1   --> A              
     e( 17 - 17) =     13.85337  eV     1   --> A              
     e( 18 - 18) =     13.94802  eV     1   --> A              
     e( 19 - 19) =     15.14210  eV     1   --> A              
     e( 20 - 20) =     15.32256  eV     1   --> A              
     e( 21 - 21) =     17.16646  eV     1   --> A              
     e( 22 - 22) =     17.70851  eV     1   --> A              

 **************************************************************************

 **************************************************************************

                    xk=(  -0.16233,   0.14993,   0.00000  )

     Band symmetry, C_1 (1)     point group:

     e(  1 -  1) =    -40.00676  eV     1   --> A              
     e(  2 -  2) =    -39.97311  eV     1   --> A              
     e(  3 -  3) =    -16.28585  eV     1   --> A              
     e(  4 -  4) =    -16.17967  eV     1   --> A              
     e(  5 -  5) =    -16.16153  eV     1   --> A              
     e(  6 -  6) =    -16.03130  eV     1   --> A              
     e(  7 -  7) =    -16.01801  eV     1   --> A              
     e(  8 -  8) =    -15.92263  eV     1   --> A              
     e(  9 -  9) =      2.73917  eV     1   --> A              
     e( 10 - 10) =      4.72643  eV     1   --> A              
     e( 11 - 11) =      9.04174  eV     1   --> A              
     e( 12 - 12) =     10.92803  eV     1   --> A              
     e( 13 - 13) =     11.67929  eV     1   --> A              
     e( 14 - 14) =     12.05950  eV     1   --> A              
     e( 15 - 15) =     12.19297  eV     1   --> A              
     e( 16 - 16) =     13.11924  eV     1   --> A              
     e( 17 - 17) =     13.87637  eV     1   --> A              
     e( 18 - 18) =     13.96996  eV     1   --> A              
     e( 19 - 19) =     15.15071  eV     1   --> A              
     e( 20 - 20) =     15.27584  eV     1   --> A              
     e( 21 - 21) =     17.13659  eV     1   --> A              
     e( 22 - 22) =     17.72975  eV     1   --> A              

 **************************************************************************

 **************************************************************************

                    xk=(  -0.16774,   0.15492,   0.00000  )

     Band symmetry, C_1 (1)     point group:

     e(  1 -  1) =    -40.00614  eV     1   --> A              
     e(  2 -  2) =    -39.97280  eV     1   --> A              
     e(  3 -  3) =    -16.28437  eV     1   --> A              
     e(  4 -  4) =    -16.18331  eV     1   --> A              
     e(  5 -  5) =    -16.16381  eV     1   --> A              
     e(  6 -  6) =    -16.03459  eV     1   --> A              
     e(  7 -  7) =    -16.02070  eV     1   --> A              
     e(  8 -  8) =    -15.92294  eV     1   --> A              
     e(  9 -  9) =      2.77770  eV     1   --> A              
     e( 10 - 10) =      4.73439  eV     1   --> A              
     e( 11 - 11) =      9.07073  eV     1   --> A              
     e( 12 - 12) =     10.87742  eV     1   --> A              
     e( 13 - 13) =     11.61539  eV     1   --> A              
     e( 14 - 14) =     12.02857  eV     1   --> A              
     e( 15 - 15) =     12.16800  eV     1   --> A              
     e( 16 - 16) =     13.12796  eV     1   --> A              
     e( 17 - 17) =     13.89776  eV     1   --> A              
     e( 18 - 18) =     13.99190  eV     1   --> A              
     e( 19 - 19) =     15.16416  eV     1   --> A              
     e( 20 - 20) =     15.23082  eV     1   --> A              
     e( 21 - 21) =     17.10695  eV     1   --> A              
     e( 22 - 22) =     17.75125  eV     1   --> A              

 **************************************************************************

 **************************************************************************

                    xk=(  -0.17315,   0.15992,   0.00000  )

     Band symmetry, C_1 (1)     point group:

     e(  1 -  1) =    -40.00550  eV     1   --> A              
     e(  2 -  2) =    -39.97249  eV     1   --> A              
     e(  3 -  3) =    -16.28292  eV     1   --> A              
     e(  4 -  4) =    -16.18702  eV     1   --> A              
     e(  5 -  5) =    -16.16607  eV     1   --> A              
     e(  6 -  6) =    -16.03791  eV     1   --> A              
     e(  7 -  7) =    -16.02343  eV     1   --> A              
     e(  8 -  8) =    -15.92328  eV     1   --> A              
     e(  9 -  9) =      2.81701  eV     1   --> A              
     e( 10 - 10) =      4.74221  eV     1   --> A              
     e( 11 - 11) =      9.10068  eV     1   --> A              
     e( 12 - 12) =     10.82598  eV     1   --> A              
     e( 13 - 13) =     11.55167  eV     1   --> A              
     e( 14 - 14) =     11.99894  eV     1   --> A              
     e( 15 - 15) =     12.14213  eV     1   --> A              
     e( 16 - 16) =     13.13486  eV     1   --> A              
     e( 17 - 17) =     13.91748  eV     1   --> A              
     e( 18 - 18) =     14.01386  eV     1   --> A              
     e( 19 - 19) =     15.18248  eV     1   --> A              
     e( 20 - 20) =     15.18771  eV     1   --> A              
     e( 21 - 21) =     17.07760  eV     1   --> A              
     e( 22 - 22) =     17.77295  eV     1   --> A              

 **************************************************************************

 **************************************************************************

                    xk=(  -0.17856,   0.16492,   0.00000  )

     Band symmetry, C_1 (1)     point group:

     e(  1 -  1) =    -40.00486  eV     1   --> A              
     e(  2 -  2) =    -39.97217  eV     1   --> A              
     e(  3 -  3) =    -16.28153  eV     1   --> A              
     e(  4 -  4) =    -16.19078  eV     1   --> A              
     e(  5 -  5) =    -16.16828  eV     1   --> A              
     e(  6 -  6) =    -16.04127  eV     1   --> A              
     e(  7 -  7) =    -16.02620  eV     1   --> A              
     e(  8 -  8) =    -15.92365  eV     1   --> A              
     e(  9 -  9) =      2.85705  eV     1   --> A              
     e( 10 - 10) =      4.74987  eV     1   --> A              
     e( 11 - 11) =      9.13151  eV     1   --> A              
     e( 12 - 12) =     10.77382  eV     1   --> A              
     e( 13 - 13) =     11.48837  eV     1   --> A              
     e( 14 - 14) =     11.97062  eV     1   --> A              
     e( 15 - 15) =     12.11537  eV     1   --> A              
     e( 16 - 16) =     13.13970  eV     1   --> A              
     e( 17 - 17) =     13.93555  eV     1   --> A              
     e( 18 - 18) =     14.03583  eV     1   --> A              
     e( 19 - 19) =     15.14672  eV     1   --> A              
     e( 20 - 20) =     15.20566  eV     1   --> A              
     e( 21 - 21) =     17.04863  eV     1   --> A              
     e( 22 - 22) =     17.79479  eV     1   --> A              

 **************************************************************************

 **************************************************************************

                    xk=(  -0.18397,   0.16992,   0.00000  )

     Band symmetry, C_1 (1)     point group:

     e(  1 -  1) =    -40.00420  eV     1   --> A              
     e(  2 -  2) =    -39.97185  eV     1   --> A              
     e(  3 -  3) =    -16.28019  eV     1   --> A              
     e(  4 -  4) =    -16.19458  eV     1   --> A              
     e(  5 -  5) =    -16.17044  eV     1   --> A              
     e(  6 -  6) =    -16.04467  eV     1   --> A              
     e(  7 -  7) =    -16.02899  eV     1   --> A              
     e(  8 -  8) =    -15.92407  eV     1   --> A              
     e(  9 -  9) =      2.89777  eV     1   --> A              
     e( 10 - 10) =      4.75735  eV     1   --> A              
     e( 11 - 11) =      9.16316  eV     1   --> A              
     e( 12 - 12) =     10.72109  eV     1   --> A              
     e( 13 - 13) =     11.42568  eV     1   --> A              
     e( 14 - 14) =     11.94365  eV     1   --> A              
     e( 15 - 15) =     12.08774  eV     1   --> A              
     e( 16 - 16) =     13.14226  eV     1   --> A              
     e( 17 - 17) =     13.95202  eV     1   --> A              
     e( 18 - 18) =     14.05779  eV     1   --> A              
     e( 19 - 19) =     15.10809  eV     1   --> A              
     e( 20 - 20) =     15.23359  eV     1   --> A              
     e( 21 - 21) =     17.02014  eV     1   --> A              
     e( 22 - 22) =     17.81672  eV     1   --> A              

 **************************************************************************

 **************************************************************************

                    xk=(  -0.18938,   0.17491,   0.00000  )

     Band symmetry, C_1 (1)     point group:

     e(  1 -  1) =    -40.00353  eV     1   --> A              
     e(  2 -  2) =    -39.97153  eV     1   --> A              
     e(  3 -  3) =    -16.27893  eV     1   --> A              
     e(  4 -  4) =    -16.19845  eV     1   --> A              
     e(  5 -  5) =    -16.17253  eV     1   --> A              
     e(  6 -  6) =    -16.04813  eV     1   --> A              
     e(  7 -  7) =    -16.03183  eV     1   --> A              
     e(  8 -  8) =    -15.92456  eV     1   --> A              
     e(  9 -  9) =      2.93910  eV     1   --> A              
     e( 10 - 10) =      4.76463  eV     1   --> A              
     e( 11 - 11) =      9.19551  eV     1   --> A              
     e( 12 - 12) =     10.66790  eV     1   --> A              
     e( 13 - 13) =     11.36384  eV     1   --> A              
     e( 14 - 14) =     11.91800  eV     1   --> A              
     e( 15 - 15) =     12.05928  eV     1   --> A              
     e( 16 - 16) =     13.14233  eV     1   --> A              
     e( 17 - 17) =     13.96702  eV     1   --> A              
     e( 18 - 18) =     14.07968  eV     1   --> A              
     e( 19 - 19) =     15.07203  eV     1   --> A              
     e( 20 - 20) =     15.26608  eV     1   --> A              
     e( 21 - 21) =     16.99222  eV     1   --> A              
     e( 22 - 22) =     17.83869  eV     1   --> A              

 **************************************************************************

 **************************************************************************

                    xk=(  -0.19479,   0.17991,   0.00000  )

     Band symmetry, C_1 (1)     point group:

     e(  1 -  1) =    -40.00285  eV     1   --> A              
     e(  2 -  2) =    -39.97120  eV     1   --> A              
     e(  3 -  3) =    -16.27776  eV     1   --> A              
     e(  4 -  4) =    -16.20234  eV     1   --> A              
     e(  5 -  5) =    -16.17453  eV     1   --> A              
     e(  6 -  6) =    -16.05158  eV     1   --> A              
     e(  7 -  7) =    -16.03467  eV     1   --> A              
     e(  8 -  8) =    -15.92505  eV     1   --> A              
     e(  9 -  9) =      2.98101  eV     1   --> A              
     e( 10 - 10) =      4.77168  eV     1   --> A              
     e( 11 - 11) =      9.22844  eV     1   --> A              
     e( 12 - 12) =     10.61440  eV     1   --> A              
     e( 13 - 13) =     11.30307  eV     1   --> A              
     e( 14 - 14) =     11.89366  eV     1   --> A              
     e( 15 - 15) =     12.03001  eV     1   --> A              
     e( 16 - 16) =     13.13975  eV     1   --> A              
     e( 17 - 17) =     13.98073  eV     1   --> A              
     e( 18 - 18) =     14.10139  eV     1   --> A              
     e( 19 - 19) =     15.03880  eV     1   --> A              
     e( 20 - 20) =     15.30291  eV     1   --> A              
     e( 21 - 21) =     16.96499  eV     1   --> A              
     e( 22 - 22) =     17.86066  eV     1   --> A              

 **************************************************************************

 **************************************************************************

                    xk=(  -0.20020,   0.18491,   0.00000  )

     Band symmetry, C_1 (1)     point group:

     e(  1 -  1) =    -40.00216  eV     1   --> A              
     e(  2 -  2) =    -39.97087  eV     1   --> A              
     e(  3 -  3) =    -16.27667  eV     1   --> A              
     e(  4 -  4) =    -16.20625  eV     1   --> A              
     e(  5 -  5) =    -16.17639  eV     1   --> A              
     e(  6 -  6) =    -16.05505  eV     1   --> A              
     e(  7 -  7) =    -16.03750  eV     1   --> A              
     e(  8 -  8) =    -15.92557  eV     1   --> A              
     e(  9 -  9) =      3.02344  eV     1   --> A              
     e( 10 - 10) =      4.77848  eV     1   --> A              
     e( 11 - 11) =      9.26183  eV     1   --> A              
     e( 12 - 12) =     10.56073  eV     1   --> A              
     e( 13 - 13) =     11.24362  eV     1   --> A              
     e( 14 - 14) =     11.87061  eV     1   --> A              
     e( 15 - 15) =     12.00000  eV     1   --> A              
     e( 16 - 16) =     13.13439  eV     1   --> A              
     e( 17 - 17) =     13.99334  eV     1   --> A              
     e( 18 - 18) =     14.12276  eV     1   --> A              
     e( 19 - 19) =     15.00867  eV     1   --> A              
     e( 20 - 20) =     15.34382  eV     1   --> A              
     e( 21 - 21) =     16.93858  eV     1   --> A              
     e( 22 - 22) =     17.88259  eV     1   --> A              

 **************************************************************************

 **************************************************************************

                    xk=(  -0.20561,   0.18991,   0.00000  )

     Band symmetry, C_1 (1)     point group:

     e(  1 -  1) =    -40.00145  eV     1   --> A              
     e(  2 -  2) =    -39.97053  eV     1   --> A              
     e(  3 -  3) =    -16.27574  eV     1   --> A              
     e(  4 -  4) =    -16.21020  eV     1   --> A              
     e(  5 -  5) =    -16.17816  eV     1   --> A              
     e(  6 -  6) =    -16.05855  eV     1   --> A              
     e(  7 -  7) =    -16.04037  eV     1   --> A              
     e(  8 -  8) =    -15.92614  eV     1   --> A              
     e(  9 -  9) =      3.06632  eV     1   --> A              
     e( 10 - 10) =      4.78502  eV     1   --> A              
     e( 11 - 11) =      9.29551  eV     1   --> A              
     e( 12 - 12) =     10.50703  eV     1   --> A              
     e( 13 - 13) =     11.18574  eV     1   --> A              
     e( 14 - 14) =     11.84881  eV     1   --> A              
     e( 15 - 15) =     11.96927  eV     1   --> A              
     e( 16 - 16) =     13.12615  eV     1   --> A              
     e( 17 - 17) =     14.00506  eV     1   --> A              
     e( 18 - 18) =     14.14355  eV     1   --> A              
     e( 19 - 19) =     14.98193  eV     1   --> A              
     e( 20 - 20) =     15.38848  eV     1   --> A              
     e( 21 - 21) =     16.91309  eV     1   --> A              
     e( 22 - 22) =     17.90444  eV     1   --> A              

 **************************************************************************

 **************************************************************************

                    xk=(  -0.21103,   0.19490,   0.00000  )

     Band symmetry, C_1 (1)     point group:

     e(  1 -  1) =    -40.00074  eV     1   --> A              
     e(  2 -  2) =    -39.97021  eV     1   --> A              
     e(  3 -  3) =    -16.27497  eV     1   --> A              
     e(  4 -  4) =    -16.21416  eV     1   --> A              
     e(  5 -  5) =    -16.17982  eV     1   --> A              
     e(  6 -  6) =    -16.06203  eV     1   --> A              
     e(  7 -  7) =    -16.04326  eV     1   --> A              
     e(  8 -  8) =    -15.92678  eV     1   --> A              
     e(  9 -  9) =      3.10959  eV     1   --> A              
     e( 10 - 10) =      4.79128  eV     1   --> A              
     e( 11 - 11) =      9.32927  eV     1   --> A              
     e( 12 - 12) =     10.45345  eV     1   --> A              
     e( 13 - 13) =     11.12969  eV     1   --> A              
     e( 14 - 14) =     11.82821  eV     1   --> A              
     e( 15 - 15) =     11.93788  eV     1   --> A              
     e( 16 - 16) =     13.11501  eV     1   --> A              
     e( 17 - 17) =     14.01611  eV     1   --> A              
     e( 18 - 18) =     14.16343  eV     1   --> A              
     e( 19 - 19) =     14.95892  eV     1   --> A              
     e( 20 - 20) =     15.43657  eV     1   --> A              
     e( 21 - 21) =     16.88867  eV     1   --> A              
     e( 22 - 22) =     17.92616  eV     1   --> A              

 **************************************************************************

 **************************************************************************

                    xk=(  -0.21644,   0.19990,   0.00000  )

     Band symmetry, C_1 (1)     point group:

     e(  1 -  1) =    -40.00002  eV     1   --> A              
     e(  2 -  2) =    -39.96988  eV     1   --> A              
     e(  3 -  3) =    -16.27438  eV     1   --> A              
     e(  4 -  4) =    -16.21819  eV     1   --> A              
     e(  5 -  5) =    -16.18130  eV     1   --> A              
     e(  6 -  6) =    -16.06558  eV     1   --> A              
     e(  7 -  7) =    -16.04616  eV     1   --> A              
     e(  8 -  8) =    -15.92743  eV     1   --> A              
     e(  9 -  9) =      3.15321  eV     1   --> A              
     e( 10 - 10) =      4.79723  eV     1   --> A              
     e( 11 - 11) =      9.36291  eV     1   --> A              
     e( 12 - 12) =     10.40012  eV     1   --> A              
     e( 13 - 13) =     11.07576  eV     1   --> A              
     e( 14 - 14) =     11.80876  eV     1   --> A              
     e( 15 - 15) =     11.90590  eV     1   --> A              
     e( 16 - 16) =     13.10094  eV     1   --> A              
     e( 17 - 17) =     14.02672  eV     1   --> A              
     e( 18 - 18) =     14.18203  eV     1   --> A              
     e( 19 - 19) =     14.94002  eV     1   --> A              
     e( 20 - 20) =     15.48779  eV     1   --> A              
     e( 21 - 21) =     16.86542  eV     1   --> A              
     e( 22 - 22) =     17.94771  eV     1   --> A              

 **************************************************************************

 **************************************************************************

                    xk=(  -0.22185,   0.20490,   0.00000  )

     Band symmetry, C_1 (1)     point group:

     e(  1 -  1) =    -39.99928  eV     1   --> A              
     e(  2 -  2) =    -39.96954  eV     1   --> A              
     e(  3 -  3) =    -16.27389  eV     1   --> A              
     e(  4 -  4) =    -16.22217  eV     1   --> A              
     e(  5 -  5) =    -16.18259  eV     1   --> A              
     e(  6 -  6) =    -16.06908  eV     1   --> A              
     e(  7 -  7) =    -16.04900  eV     1   --> A              
     e(  8 -  8) =    -15.92811  eV     1   --> A              
     e(  9 -  9) =      3.19710  eV     1   --> A              
     e( 10 - 10) =      4.80288  eV     1   --> A              
     e( 11 - 11) =      9.39617  eV     1   --> A              
     e( 12 - 12) =     10.34720  eV     1   --> A              
     e( 13 - 13) =     11.02427  eV     1   --> A              
     e( 14 - 14) =     11.79042  eV     1   --> A              
     e( 15 - 15) =     11.87339  eV     1   --> A              
     e( 16 - 16) =     13.08400  eV     1   --> A              
     e( 17 - 17) =     14.03707  eV     1   --> A              
     e( 18 - 18) =     14.19886  eV     1   --> A              
     e( 19 - 19) =     14.92565  eV     1   --> A              
     e( 20 - 20) =     15.54182  eV     1   --> A              
     e( 21 - 21) =     16.84353  eV     1   --> A              
     e( 22 - 22) =     17.96911  eV     1   --> A              

 **************************************************************************

 **************************************************************************

                    xk=(  -0.22726,   0.20990,   0.00000  )

     Band symmetry, C_1 (1)     point group:

     e(  1 -  1) =    -39.99854  eV     1   --> A              
     e(  2 -  2) =    -39.96920  eV     1   --> A              
     e(  3 -  3) =    -16.27365  eV     1   --> A              
     e(  4 -  4) =    -16.22619  eV     1   --> A              
     e(  5 -  5) =    -16.18370  eV     1   --> A              
     e(  6 -  6) =    -16.07262  eV     1   --> A              
     e(  7 -  7) =    -16.05186  eV     1   --> A              
     e(  8 -  8) =    -15.92882  eV     1   --> A              
     e(  9 -  9) =      3.24120  eV     1   --> A              
     e( 10 - 10) =      4.80819  eV     1   --> A              
     e( 11 - 11) =      9.42874  eV     1   --> A              
     e( 12 - 12) =     10.29481  eV     1   --> A              
     e( 13 - 13) =     10.97554  eV     1   --> A              
     e( 14 - 14) =     11.77311  eV     1   --> A              
     e( 15 - 15) =     11.84042  eV     1   --> A              
     e( 16 - 16) =     13.06429  eV     1   --> A              
     e( 17 - 17) =     14.04735  eV     1   --> A              
     e( 18 - 18) =     14.21341  eV     1   --> A              
     e( 19 - 19) =     14.91623  eV     1   --> A              
     e( 20 - 20) =     15.59833  eV     1   --> A              
     e( 21 - 21) =     16.82309  eV     1   --> A              
     e( 22 - 22) =     17.99029  eV     1   --> A              

 **************************************************************************

 **************************************************************************

                    xk=(  -0.23267,   0.21489,   0.00000  )

     Band symmetry, C_1 (1)     point group:

     e(  1 -  1) =    -39.99779  eV     1   --> A              
     e(  2 -  2) =    -39.96887  eV     1   --> A              
     e(  3 -  3) =    -16.27360  eV     1   --> A              
     e(  4 -  4) =    -16.23016  eV     1   --> A              
     e(  5 -  5) =    -16.18461  eV     1   --> A              
     e(  6 -  6) =    -16.07610  eV     1   --> A              
     e(  7 -  7) =    -16.05469  eV     1   --> A              
     e(  8 -  8) =    -15.92957  eV     1   --> A              
     e(  9 -  9) =      3.28544  eV     1   --> A              
     e( 10 - 10) =      4.81316  eV     1   --> A              
     e( 11 - 11) =      9.46029  eV     1   --> A              
     e( 12 - 12) =     10.24308  eV     1   --> A              
     e( 13 - 13) =     10.92996  eV     1   --> A              
     e( 14 - 14) =     11.75677  eV     1   --> A              
     e( 15 - 15) =     11.80707  eV     1   --> A              
     e( 16 - 16) =     13.04190  eV     1   --> A              
     e( 17 - 17) =     14.05772  eV     1   --> A              
     e( 18 - 18) =     14.22517  eV     1   --> A              
     e( 19 - 19) =     14.91218  eV     1   --> A              
     e( 20 - 20) =     15.65704  eV     1   --> A              
     e( 21 - 21) =     16.80425  eV     1   --> A              
     e( 22 - 22) =     18.01123  eV     1   --> A              

 **************************************************************************

 **************************************************************************

                    xk=(  -0.23808,   0.21989,   0.00000  )

     Band symmetry, C_1 (1)     point group:

     e(  1 -  1) =    -39.99704  eV     1   --> A              
     e(  2 -  2) =    -39.96854  eV     1   --> A              
     e(  3 -  3) =    -16.27378  eV     1   --> A              
     e(  4 -  4) =    -16.23420  eV     1   --> A              
     e(  5 -  5) =    -16.18531  eV     1   --> A              
     e(  6 -  6) =    -16.07964  eV     1   --> A              
     e(  7 -  7) =    -16.05749  eV     1   --> A              
     e(  8 -  8) =    -15.93041  eV     1   --> A              
     e(  9 -  9) =      3.32976  eV     1   --> A              
     e( 10 - 10) =      4.81777  eV     1   --> A              
     e( 11 - 11) =      9.49044  eV     1   --> A              
     e( 12 - 12) =     10.19215  eV     1   --> A              
     e( 13 - 13) =     10.88790  eV     1   --> A              
     e( 14 - 14) =     11.74135  eV     1   --> A              
     e( 15 - 15) =     11.77341  eV     1   --> A              
     e( 16 - 16) =     13.01698  eV     1   --> A              
     e( 17 - 17) =     14.06831  eV     1   --> A              
     e( 18 - 18) =     14.23367  eV     1   --> A              
     e( 19 - 19) =     14.91383  eV     1   --> A              
     e( 20 - 20) =     15.71765  eV     1   --> A              
     e( 21 - 21) =     16.78710  eV     1   --> A              
     e( 22 - 22) =     18.03191  eV     1   --> A              

 **************************************************************************

 **************************************************************************

                    xk=(  -0.24349,   0.22489,   0.00000  )

     Band symmetry, C_1 (1)     point group:

     e(  1 -  1) =    -39.99628  eV     1   --> A              
     e(  2 -  2) =    -39.96821  eV     1   --> A              
     e(  3 -  3) =    -16.27419  eV     1   --> A              
     e(  4 -  4) =    -16.23822  eV     1   --> A              
     e(  5 -  5) =    -16.18579  eV     1   --> A              
     e(  6 -  6) =    -16.08317  eV     1   --> A              
     e(  7 -  7) =    -16.06027  eV     1   --> A              
     e(  8 -  8) =    -15.93125  eV     1   --> A              
     e(  9 -  9) =      3.37408  eV     1   --> A              
     e( 10 - 10) =      4.82202  eV     1   --> A              
     e( 11 - 11) =      9.51879  eV     1   --> A              
     e( 12 - 12) =     10.14214  eV     1   --> A              
     e( 13 - 13) =     10.84978  eV     1   --> A              
     e( 14 - 14) =     11.72677  eV     1   --> A              
[...]
     e(  6 -  6) =    -15.99027  eV     1   --> A              
     e(  7 -  7) =    -15.97107  eV     1   --> A              
     e(  8 -  8) =    -15.92267  eV     1   --> A              
     e(  9 -  9) =      2.20646  eV     1   --> A              
     e( 10 - 10) =      4.58493  eV     1   --> A              
     e( 11 - 11) =      8.69373  eV     1   --> A              
     e( 12 - 12) =     11.65741  eV     1   --> A              
     e( 13 - 13) =     12.48340  eV     1   --> A              
     e( 14 - 14) =     12.52307  eV     1   --> A              
     e( 15 - 15) =     12.74301  eV     1   --> A              
     e( 16 - 16) =     13.03006  eV     1   --> A              
     e( 17 - 17) =     13.42500  eV     1   --> A              
     e( 18 - 18) =     13.55695  eV     1   --> A              
     e( 19 - 19) =     15.49431  eV     1   --> A              
     e( 20 - 20) =     16.22538  eV     1   --> A              
     e( 21 - 21) =     17.32399  eV     1   --> A              
     e( 22 - 22) =     17.79099  eV     1   --> A              

 **************************************************************************

 **************************************************************************

                    xk=(  -0.00560,   0.07042,   0.01989  )

     Band symmetry, C_1 (1)     point group:

     e(  1 -  1) =    -40.01549  eV     1   --> A              
     e(  2 -  2) =    -39.97765  eV     1   --> A              
     e(  3 -  3) =    -16.31141  eV     1   --> A              
     e(  4 -  4) =    -16.13255  eV     1   --> A              
     e(  5 -  5) =    -16.11708  eV     1   --> A              
     e(  6 -  6) =    -15.98737  eV     1   --> A              
     e(  7 -  7) =    -15.97136  eV     1   --> A              
     e(  8 -  8) =    -15.92275  eV     1   --> A              
     e(  9 -  9) =      2.19117  eV     1   --> A              
     e( 10 - 10) =      4.57998  eV     1   --> A              
     e( 11 - 11) =      8.68673  eV     1   --> A              
     e( 12 - 12) =     11.68081  eV     1   --> A              
     e( 13 - 13) =     12.51187  eV     1   --> A              
     e( 14 - 14) =     12.53359  eV     1   --> A              
     e( 15 - 15) =     12.72930  eV     1   --> A              
     e( 16 - 16) =     13.03715  eV     1   --> A              
     e( 17 - 17) =     13.43245  eV     1   --> A              
     e( 18 - 18) =     13.54237  eV     1   --> A              
     e( 19 - 19) =     15.51304  eV     1   --> A              
     e( 20 - 20) =     16.25179  eV     1   --> A              
     e( 21 - 21) =     17.35974  eV     1   --> A              
     e( 22 - 22) =     17.80086  eV     1   --> A              

 **************************************************************************

 **************************************************************************

                    xk=(  -0.00504,   0.06338,   0.01790  )

     Band symmetry, C_1 (1)     point group:

     e(  1 -  1) =    -40.01570  eV     1   --> A              
     e(  2 -  2) =    -39.97776  eV     1   --> A              
     e(  3 -  3) =    -16.31210  eV     1   --> A              
     e(  4 -  4) =    -16.12991  eV     1   --> A              
     e(  5 -  5) =    -16.11732  eV     1   --> A              
     e(  6 -  6) =    -15.98471  eV     1   --> A              
     e(  7 -  7) =    -15.97163  eV     1   --> A              
     e(  8 -  8) =    -15.92285  eV     1   --> A              
     e(  9 -  9) =      2.17729  eV     1   --> A              
     e( 10 - 10) =      4.57543  eV     1   --> A              
     e( 11 - 11) =      8.68034  eV     1   --> A              
     e( 12 - 12) =     11.70263  eV     1   --> A              
     e( 13 - 13) =     12.53507  eV     1   --> A              
     e( 14 - 14) =     12.54311  eV     1   --> A              
     e( 15 - 15) =     12.71707  eV     1   --> A              
     e( 16 - 16) =     13.04637  eV     1   --> A              
     e( 17 - 17) =     13.43914  eV     1   --> A              
     e( 18 - 18) =     13.52892  eV     1   --> A              
     e( 19 - 19) =     15.53094  eV     1   --> A              
     e( 20 - 20) =     16.27714  eV     1   --> A              
     e( 21 - 21) =     17.39100  eV     1   --> A              
     e( 22 - 22) =     17.81282  eV     1   --> A              

 **************************************************************************

 **************************************************************************

                    xk=(  -0.00448,   0.05633,   0.01591  )

     Band symmetry, C_1 (1)     point group:

     e(  1 -  1) =    -40.01590  eV     1   --> A              
     e(  2 -  2) =    -39.97787  eV     1   --> A              
     e(  3 -  3) =    -16.31272  eV     1   --> A              
     e(  4 -  4) =    -16.12753  eV     1   --> A              
     e(  5 -  5) =    -16.11753  eV     1   --> A              
     e(  6 -  6) =    -15.98230  eV     1   --> A              
     e(  7 -  7) =    -15.97187  eV     1   --> A              
     e(  8 -  8) =    -15.92296  eV     1   --> A              
     e(  9 -  9) =      2.16484  eV     1   --> A              
     e( 10 - 10) =      4.57131  eV     1   --> A              
     e( 11 - 11) =      8.67456  eV     1   --> A              
     e( 12 - 12) =     11.72274  eV     1   --> A              
     e( 13 - 13) =     12.55165  eV     1   --> A              
     e( 14 - 14) =     12.55313  eV     1   --> A              
     e( 15 - 15) =     12.70656  eV     1   --> A              
     e( 16 - 16) =     13.05727  eV     1   --> A              
     e( 17 - 17) =     13.44509  eV     1   --> A              
     e( 18 - 18) =     13.51663  eV     1   --> A              
     e( 19 - 19) =     15.54778  eV     1   --> A              
     e( 20 - 20) =     16.30110  eV     1   --> A              
     e( 21 - 21) =     17.41737  eV     1   --> A              
     e( 22 - 22) =     17.82719  eV     1   --> A              

 **************************************************************************

 **************************************************************************

                    xk=(  -0.00392,   0.04929,   0.01393  )

     Band symmetry, C_1 (1)     point group:

     e(  1 -  1) =    -40.01606  eV     1   --> A              
     e(  2 -  2) =    -39.97796  eV     1   --> A              
     e(  3 -  3) =    -16.31328  eV     1   --> A              
     e(  4 -  4) =    -16.12536  eV     1   --> A              
     e(  5 -  5) =    -16.11771  eV     1   --> A              
     e(  6 -  6) =    -15.98008  eV     1   --> A              
     e(  7 -  7) =    -15.97208  eV     1   --> A              
     e(  8 -  8) =    -15.92307  eV     1   --> A              
     e(  9 -  9) =      2.15384  eV     1   --> A              
     e( 10 - 10) =      4.56763  eV     1   --> A              
     e( 11 - 11) =      8.66943  eV     1   --> A              
     e( 12 - 12) =     11.74098  eV     1   --> A              
     e( 13 - 13) =     12.55918  eV     1   --> A              
     e( 14 - 14) =     12.56636  eV     1   --> A              
     e( 15 - 15) =     12.69799  eV     1   --> A              
     e( 16 - 16) =     13.06923  eV     1   --> A              
     e( 17 - 17) =     13.45031  eV     1   --> A              
     e( 18 - 18) =     13.50558  eV     1   --> A              
     e( 19 - 19) =     15.56333  eV     1   --> A              
     e( 20 - 20) =     16.32335  eV     1   --> A              
     e( 21 - 21) =     17.43876  eV     1   --> A              
     e( 22 - 22) =     17.84387  eV     1   --> A              

 **************************************************************************

 **************************************************************************

                    xk=(  -0.00336,   0.04225,   0.01194  )

     Band symmetry, C_1 (1)     point group:

     e(  1 -  1) =    -40.01621  eV     1   --> A              
     e(  2 -  2) =    -39.97804  eV     1   --> A              
     e(  3 -  3) =    -16.31376  eV     1   --> A              
     e(  4 -  4) =    -16.12350  eV     1   --> A              
     e(  5 -  5) =    -16.11787  eV     1   --> A              
     e(  6 -  6) =    -15.97818  eV     1   --> A              
     e(  7 -  7) =    -15.97226  eV     1   --> A              
     e(  8 -  8) =    -15.92319  eV     1   --> A              
     e(  9 -  9) =      2.14429  eV     1   --> A              
     e( 10 - 10) =      4.56442  eV     1   --> A              
     e( 11 - 11) =      8.66496  eV     1   --> A              
     e( 12 - 12) =     11.75720  eV     1   --> A              
     e( 13 - 13) =     12.56571  eV     1   --> A              
     e( 14 - 14) =     12.57527  eV     1   --> A              
     e( 15 - 15) =     12.69144  eV     1   --> A              
     e( 16 - 16) =     13.08153  eV     1   --> A              
     e( 17 - 17) =     13.45481  eV     1   --> A              
     e( 18 - 18) =     13.49577  eV     1   --> A              
     e( 19 - 19) =     15.57737  eV     1   --> A              
     e( 20 - 20) =     16.34353  eV     1   --> A              
     e( 21 - 21) =     17.45545  eV     1   --> A              
     e( 22 - 22) =     17.86236  eV     1   --> A              

 **************************************************************************

 **************************************************************************

                    xk=(  -0.00280,   0.03521,   0.00995  )

     Band symmetry, C_1 (1)     point group:

     e(  1 -  1) =    -40.01633  eV     1   --> A              
     e(  2 -  2) =    -39.97810  eV     1   --> A              
     e(  3 -  3) =    -16.31417  eV     1   --> A              
     e(  4 -  4) =    -16.12185  eV     1   --> A              
     e(  5 -  5) =    -16.11797  eV     1   --> A              
     e(  6 -  6) =    -15.97648  eV     1   --> A              
     e(  7 -  7) =    -15.97238  eV     1   --> A              
     e(  8 -  8) =    -15.92329  eV     1   --> A              
     e(  9 -  9) =      2.13620  eV     1   --> A              
     e( 10 - 10) =      4.56168  eV     1   --> A              
     e( 11 - 11) =      8.66115  eV     1   --> A              
     e( 12 - 12) =     11.77126  eV     1   --> A              
     e( 13 - 13) =     12.57124  eV     1   --> A              
     e( 14 - 14) =     12.58060  eV     1   --> A              
     e( 15 - 15) =     12.68684  eV     1   --> A              
     e( 16 - 16) =     13.09345  eV     1   --> A              
     e( 17 - 17) =     13.45860  eV     1   --> A              
     e( 18 - 18) =     13.48729  eV     1   --> A              
     e( 19 - 19) =     15.58970  eV     1   --> A              
     e( 20 - 20) =     16.36133  eV     1   --> A              
     e( 21 - 21) =     17.46796  eV     1   --> A              
     e( 22 - 22) =     17.88172  eV     1   --> A              

 **************************************************************************

 **************************************************************************

                    xk=(  -0.00224,   0.02817,   0.00796  )

     Band symmetry, C_1 (1)     point group:

     e(  1 -  1) =    -40.01644  eV     1   --> A              
     e(  2 -  2) =    -39.97816  eV     1   --> A              
     e(  3 -  3) =    -16.31451  eV     1   --> A              
     e(  4 -  4) =    -16.12057  eV     1   --> A              
     e(  5 -  5) =    -16.11807  eV     1   --> A              
     e(  6 -  6) =    -15.97515  eV     1   --> A              
     e(  7 -  7) =    -15.97249  eV     1   --> A              
     e(  8 -  8) =    -15.92340  eV     1   --> A              
     e(  9 -  9) =      2.12956  eV     1   --> A              
     e( 10 - 10) =      4.55942  eV     1   --> A              
     e( 11 - 11) =      8.65802  eV     1   --> A              
     e( 12 - 12) =     11.78298  eV     1   --> A              
     e( 13 - 13) =     12.57577  eV     1   --> A              
     e( 14 - 14) =     12.58323  eV     1   --> A              
     e( 15 - 15) =     12.68386  eV     1   --> A              
     e( 16 - 16) =     13.10428  eV     1   --> A              
     e( 17 - 17) =     13.46169  eV     1   --> A              
     e( 18 - 18) =     13.48019  eV     1   --> A              
     e( 19 - 19) =     15.60009  eV     1   --> A              
     e( 20 - 20) =     16.37641  eV     1   --> A              
     e( 21 - 21) =     17.47696  eV     1   --> A              
     e( 22 - 22) =     17.90071  eV     1   --> A              

 **************************************************************************

 **************************************************************************

                    xk=(  -0.00168,   0.02113,   0.00597  )

     Band symmetry, C_1 (1)     point group:

     e(  1 -  1) =    -40.01652  eV     1   --> A              
     e(  2 -  2) =    -39.97820  eV     1   --> A              
     e(  3 -  3) =    -16.31478  eV     1   --> A              
     e(  4 -  4) =    -16.11956  eV     1   --> A              
     e(  5 -  5) =    -16.11816  eV     1   --> A              
     e(  6 -  6) =    -15.97410  eV     1   --> A              
     e(  7 -  7) =    -15.97259  eV     1   --> A              
     e(  8 -  8) =    -15.92348  eV     1   --> A              
     e(  9 -  9) =      2.12440  eV     1   --> A              
     e( 10 - 10) =      4.55765  eV     1   --> A              
     e( 11 - 11) =      8.65558  eV     1   --> A              
     e( 12 - 12) =     11.79225  eV     1   --> A              
     e( 13 - 13) =     12.57929  eV     1   --> A              
     e( 14 - 14) =     12.58414  eV     1   --> A              
     e( 15 - 15) =     12.68210  eV     1   --> A              
     e( 16 - 16) =     13.11340  eV     1   --> A              
     e( 17 - 17) =     13.46408  eV     1   --> A              
     e( 18 - 18) =     13.47455  eV     1   --> A              
     e( 19 - 19) =     15.60837  eV     1   --> A              
     e( 20 - 20) =     16.38845  eV     1   --> A              
     e( 21 - 21) =     17.48314  eV     1   --> A              
     e( 22 - 22) =     17.91787  eV     1   --> A              

 **************************************************************************

 **************************************************************************

                    xk=(  -0.00112,   0.01408,   0.00398  )

     Band symmetry, C_1 (1)     point group:

     e(  1 -  1) =    -40.01658  eV     1   --> A              
     e(  2 -  2) =    -39.97824  eV     1   --> A              
     e(  3 -  3) =    -16.31499  eV     1   --> A              
     e(  4 -  4) =    -16.11886  eV     1   --> A              
     e(  5 -  5) =    -16.11825  eV     1   --> A              
     e(  6 -  6) =    -15.97337  eV     1   --> A              
     e(  7 -  7) =    -15.97268  eV     1   --> A              
     e(  8 -  8) =    -15.92354  eV     1   --> A              
     e(  9 -  9) =      2.12071  eV     1   --> A              
     e( 10 - 10) =      4.55638  eV     1   --> A              
     e( 11 - 11) =      8.65382  eV     1   --> A              
     e( 12 - 12) =     11.79897  eV     1   --> A              
     e( 13 - 13) =     12.58180  eV     1   --> A              
     e( 14 - 14) =     12.58416  eV     1   --> A              
     e( 15 - 15) =     12.68115  eV     1   --> A              
     e( 16 - 16) =     13.12030  eV     1   --> A              
     e( 17 - 17) =     13.46577  eV     1   --> A              
     e( 18 - 18) =     13.47045  eV     1   --> A              
     e( 19 - 19) =     15.61437  eV     1   --> A              
     e( 20 - 20) =     16.39725  eV     1   --> A              
     e( 21 - 21) =     17.48710  eV     1   --> A              
     e( 22 - 22) =     17.93168  eV     1   --> A              

 **************************************************************************

 **************************************************************************

                    xk=(  -0.00056,   0.00704,   0.00199  )

     Band symmetry, C_1 (1)     point group:

     e(  1 -  1) =    -40.01661  eV     1   --> A              
     e(  2 -  2) =    -39.97826  eV     1   --> A              
     e(  3 -  3) =    -16.31511  eV     1   --> A              
     e(  4 -  4) =    -16.11842  eV     1   --> A              
     e(  5 -  5) =    -16.11829  eV     1   --> A              
     e(  6 -  6) =    -15.97291  eV     1   --> A              
     e(  7 -  7) =    -15.97273  eV     1   --> A              
     e(  8 -  8) =    -15.92359  eV     1   --> A              
     e(  9 -  9) =      2.11849  eV     1   --> A              
     e( 10 - 10) =      4.55562  eV     1   --> A              
     e( 11 - 11) =      8.65277  eV     1   --> A              
     e( 12 - 12) =     11.80303  eV     1   --> A              
     e( 13 - 13) =     12.58330  eV     1   --> A              
     e( 14 - 14) =     12.58393  eV     1   --> A              
     e( 15 - 15) =     12.68070  eV     1   --> A              
     e( 16 - 16) =     13.12460  eV     1   --> A              
     e( 17 - 17) =     13.46679  eV     1   --> A              
     e( 18 - 18) =     13.46796  eV     1   --> A              
     e( 19 - 19) =     15.61802  eV     1   --> A              
     e( 20 - 20) =     16.40261  eV     1   --> A              
     e( 21 - 21) =     17.48930  eV     1   --> A              
     e( 22 - 22) =     17.94069  eV     1   --> A              

 **************************************************************************

 **************************************************************************

                    xk=(   0.00000,   0.00000,   0.00000  )

     Band symmetry, C_1 (1)     point group:

     e(  1 -  1) =    -40.01662  eV     1   --> A              
     e(  2 -  2) =    -39.97827  eV     1   --> A              
     e(  3 -  3) =    -16.31515  eV     1   --> A              
     e(  4 -  5) =    -16.11830  eV     2   -->   2 A              
     e(  6 -  7) =    -15.97276  eV     2   -->   2 A              
     e(  8 -  8) =    -15.92360  eV     1   --> A              
     e(  9 -  9) =      2.11775  eV     1   --> A              
     e( 10 - 10) =      4.55536  eV     1   --> A              
     e( 11 - 11) =      8.65242  eV     1   --> A              
     e( 12 - 12) =     11.80439  eV     1   --> A              
     e( 13 - 14) =     12.58381  eV     2   -->   2 A              
     e( 15 - 15) =     12.68057  eV     1   --> A              
     e( 16 - 16) =     13.12606  eV     1   --> A              
     e( 17 - 18) =     13.46713  eV     2   -->   2 A              
     e( 19 - 19) =     15.61925  eV     1   --> A              
     e( 20 - 20) =     16.40440  eV     1   --> A              
     e( 21 - 21) =     17.49000  eV     1   --> A              
     e( 22 - 22) =     17.94384  eV     1   --> A              

 **************************************************************************
 
     BANDS        :      9.89s CPU     19.09s WALL

 
   This run was terminated on:  12:20:36  26Jan2024            

=------------------------------------------------------------------------------=
   JOB DONE.
=------------------------------------------------------------------------------=
